 Gaussian 16, Revision C.01,
 Gaussian 16:  ES64L-G16RevC.01  3-Jul-2019

 ----------------------------------------------------------------------
 #p opt freq=(raman,savenm) bp86/cc-pvdz scrf=(solvent=water,pcm) empir
 icaldispersion=gd3bj scf=maxcyc=500
 ----------------------------------------------------------------------

 ------------------------------------
 lumiflavin ground state optimiyation
 ------------------------------------
 Symbolic Z-matrix:
 Charge =  0 Multiplicity = 1

 SCF Done:  E(RB-P86) =  -872.257417459     A.U. after   18 cycles
 SCF Done:  E(RB-P86) =  -872.270195433     A.U. after   12 cycles
 SCF Done:  E(RB-P86) =  -872.271144931     A.U. after   11 cycles
 SCF Done:  E(RB-P86) =  -872.271532234     A.U. after   11 cycles
 SCF Done:  E(RB-P86) =  -872.271873849     A.U. after   11 cycles
 SCF Done:  E(RB-P86) =  -872.272016461     A.U. after   10 cycles
 SCF Done:  E(RB-P86) =  -872.272295067     A.U. after   10 cycles
 SCF Done:  E(RB-P86) =  -872.272404621     A.U. after   10 cycles
 SCF Done:  E(RB-P86) =  -872.272484954     A.U. after    9 cycles
 SCF Done:  E(RB-P86) =  -872.272493018     A.U. after    9 cycles
 SCF Done:  E(RB-P86) =  -872.272498014     A.U. after    9 cycles
 SCF Done:  E(RB-P86) =  -872.272497934     A.U. after    8 cycles
 SCF Done:  E(RB-P86) =  -872.272499203     A.U. after    8 cycles
 SCF Done:  E(RB-P86) =  -872.272499514     A.U. after    7 cycles
 SCF Done:  E(RB-P86) =  -872.272499540     A.U. after    7 cycles
 Optimization completed.
    -- Stationary point found.

 1\1\GINC-ELMO3-1\FOpt\RBP86\CC-pVDZ\C13H12N4O2\BERDARD\01-Aug-2022\0\\
 #p opt freq=(raman,savenm) bp86/cc-pvdz scrf=(solvent=water,pcm) empir
 icaldispersion=gd3bj scf=maxcyc=500\\lumiflavin ground state optimiyat
 ion\\0,1\N,0.0816909094,0.7189985174,-0.4780882174\C,-0.2687295479,2.0
 556242412,-0.4986723532\O,-1.4395138252,2.4438921795,-0.5888875921\N,0
 .764866535,3.0271550872,-0.4122560262\C,2.1287676695,2.8019654459,-0.3
 060623694\O,2.9550370523,3.715822296,-0.2361427169\C,2.4720627999,1.34
 54495915,-0.2864212773\N,3.7457081687,1.014287834,-0.18763619\C,4.0519

 Normal termination of Gaussian 16 at Mon Aug  1 13:12:21 2022.

 ------------------------------------------------------------------
 #P Geom=AllCheck Guess=TCheck SCRF=Check GenChk RBP86/CC-pVDZ Freq
 ------------------------------------------------------------------

 Structure from the checkpoint file:  "01_lum_s0_opt.chk"
 ------------------------------------
 lumiflavin ground state optimiyation
 ------------------------------------
 Charge =  0 Multiplicity = 1

                         Standard orientation:
 ---------------------------------------------------------------------
 Center     Atomic      Atomic             Coordinates (Angstroms)
 Number     Number       Type             X           Y           Z
 ---------------------------------------------------------------------
      1          7           0       -2.573396   -1.320780   -0.000023
      2          6           0       -3.775767   -0.639539    0.000061
      3          8           0       -4.873239   -1.209786    0.000113
      4          7           0       -3.748023    0.781338   -0.000050
      5          6           0       -2.632165    1.604184   -0.000195
      6          8           0       -2.708226    2.835833   -0.000160
      7          6           0       -1.348919    0.834148   -0.000037
      8          7           0       -0.220337    1.518180    0.000075
      9          6           0        0.950248    0.806082    0.000086
     10          6           0        2.181375    1.513851    0.000174
     11          6           0        3.409224    0.857635    0.000093
     12          6           0        4.703151    1.630831    0.000139
     13          6           0        3.419047   -0.579755   -0.000104
     14          6           0        4.729206   -1.320560   -0.000205
     15          6           0        2.214751   -1.296754   -0.000130
     16          6           0        0.971372   -0.628020   -0.000015
     17          7           0       -0.238724   -1.309731    0.000003
     18          6           0       -1.445708   -0.621698   -0.000028
     19          6           0       -0.249657   -2.780217    0.000124
     20          1           0       -4.664661    1.244031    0.000117
     21          1           0        2.123263    2.612364    0.000312
     22          1           0        5.320419    1.385535   -0.890108
     23          1           0        4.517163    2.721355    0.001206
     24          1           0        5.321414    1.383905    0.889222
     25          1           0        5.338411   -1.050970    0.888767
     26          1           0        4.579168   -2.416206   -0.001407
     27          1           0        5.339484   -1.049081   -0.887837
     28          1           0        2.255778   -2.393040   -0.000277
     29          1           0        0.265888   -3.156287   -0.904247
     30          1           0       -1.304091   -3.098080    0.000242
     31          1           0        0.265898   -3.156097    0.904563
 ---------------------------------------------------------------------

 SCF Done:  E(RB-P86) =  -872.272499540     A.U. after    1 cycles

 The electronic state is 1-A.
 Alpha  occ. eigenvalues --  -18.77499 -18.76315 -14.11324 -14.06710 -14.05555
 Alpha  occ. eigenvalues --  -14.01726 -10.04066 -10.03029 -10.02197  -9.99186
 Alpha  occ. eigenvalues --   -9.98481  -9.97456  -9.96066  -9.95416  -9.94441
 Alpha  occ. eigenvalues --   -9.93921  -9.93652  -9.92444  -9.92199  -0.97618
 Alpha  occ. eigenvalues --   -0.95350  -0.94690  -0.87965  -0.86609  -0.82840
 Alpha  occ. eigenvalues --   -0.79781  -0.72924  -0.71658  -0.69134  -0.66574
 Alpha  occ. eigenvalues --   -0.65381  -0.61751  -0.59769  -0.56803  -0.55926
 Alpha  occ. eigenvalues --   -0.54066  -0.51972  -0.50526  -0.47224  -0.45753
 Alpha  occ. eigenvalues --   -0.45119  -0.43512  -0.42303  -0.41462  -0.40664
 Alpha  occ. eigenvalues --   -0.40152  -0.39952  -0.38777  -0.37902  -0.37681
 Alpha  occ. eigenvalues --   -0.36584  -0.36061  -0.35921  -0.35573  -0.35137
 Alpha  occ. eigenvalues --   -0.32872  -0.32663  -0.32185  -0.31532  -0.27601
 Alpha  occ. eigenvalues --   -0.26666  -0.24834  -0.24296  -0.23744  -0.23366
 Alpha  occ. eigenvalues --   -0.21906  -0.20956
 Alpha virt. eigenvalues --   -0.13405  -0.07249  -0.04771  -0.02945  -0.00613
 Alpha virt. eigenvalues --    0.03811   0.04847   0.06201   0.06391   0.07274
 Alpha virt. eigenvalues --    0.07842   0.08292   0.08862   0.10166   0.10417

 Mulliken charges:
               1
     1  N   -0.283414
     2  C    0.138731
     3  O   -0.276880
     4  N   -0.089212
     5  C    0.131265
     6  O   -0.246730
     7  C   -0.021064
     8  N   -0.171633
     9  C    0.039268
    10  C    0.007028
    11  C   -0.098730
    12  C   -0.000008
    13  C   -0.121288
    14  C    0.000677
    15  C   -0.016851
    16  C    0.224356
    17  N   -0.253996
    18  C    0.259861
    19  C    0.013184
    20  H    0.122830
    21  H   -0.008447
    22  H    0.069681
    23  H    0.049992
    24  H    0.069602
    25  H    0.075174
    26  H    0.052391
    27  H    0.075085
    28  H    0.007035
    29  H    0.089707
    30  H    0.072690
    31  H    0.089697
 Sum of Mulliken charges =  -0.00000

 Dipole moment (field-independent basis, Debye):
    X=             12.2027    Y=             -3.7326    Z=              0.0004  Tot=             12.7608
 Quadrupole moment (field-independent basis, Debye-Ang):
   XX=           -112.1906   YY=           -114.1252   ZZ=           -108.0476
   XY=             -8.6097   XZ=             -0.0005   YZ=              0.0006

  Exact polarizability:     529.253       1.063     264.105      -0.000       0.002     102.467
 Approx polarizability:     837.754      10.575     414.698       0.001       0.005     142.897

                      1                      2                      3
                      A                      A                      A
 Frequencies --     40.2116                53.9170                92.1906
 Red. masses --      6.4317                 3.9705                 3.4726
 Frc consts  --      0.0061                 0.0068                 0.0174
 IR Inten    --      0.8253                 0.0307                 2.4073
 Raman Activ --      0.5489                 0.8733                 0.3588

                      4                      5                      6
                      A                      A                      A
 Frequencies --    125.4018               129.2171               147.6935
 Red. masses --      5.9482                 1.1817                 4.6303
 Frc consts  --      0.0551                 0.0116                 0.0595
 IR Inten    --      8.3513                 2.7414                 0.8090
 Raman Activ --      0.1215                 0.2549                 0.3585

                      7                      8                      9
                      A                      A                      A
 Frequencies --    159.7313               164.6776               182.6942
 Red. masses --      5.3993                 1.4208                 1.1181
 Frc consts  --      0.0812                 0.0227                 0.0220
 IR Inten    --      0.8303                 0.3806                 1.5369
 Raman Activ --      1.3888                 1.9262                 2.6462

                     10                     11                     12
                      A                      A                      A
 Frequencies --    194.7713               243.2786               270.3624
 Red. masses --      1.9710                 4.1000                 4.2590
 Frc consts  --      0.0441                 0.1430                 0.1834
 IR Inten    --      0.0043                 1.4388                 1.3632
 Raman Activ --      1.2598                 3.7003                12.3763

                     13                     14                     15
                      A                      A                      A
 Frequencies --    289.3022               315.5143               323.1844
 Red. masses --      3.0583                 5.0103                 4.6047
 Frc consts  --      0.1508                 0.2939                 0.2834
 IR Inten    --      6.8365                 5.4863                 1.1476
 Raman Activ --      7.7074                28.3970                 1.5002

                     16                     17                     18
                      A                      A                      A
 Frequencies --    344.3599               368.6513               390.1071
 Red. masses --      3.9278                 4.5242                 6.7989
 Frc consts  --      0.2744                 0.3623                 0.6096
 IR Inten    --      3.5025                 0.3261                17.7678
 Raman Activ --     28.9929                 0.6270                19.5588

                     19                     20                     21
                      A                      A                      A
 Frequencies --    427.5615               438.3465               484.1584
 Red. masses --      5.9492                 3.8874                 5.4661
 Frc consts  --      0.6408                 0.4401                 0.7549
 IR Inten    --     49.2688                13.1442                27.5555
 Raman Activ --      4.6819                 4.2437                18.4070

                     22                     23                     24
                      A                      A                      A
 Frequencies --    501.1971               501.4344               527.4946
 Red. masses --      9.2053                 4.9713                 5.1166
 Frc consts  --      1.3624                 0.7365                 0.8388
 IR Inten    --      2.3403                 2.4689                14.0514
 Raman Activ --     18.3534                 1.1379                14.6916

                     25                     26                     27
                      A                      A                      A
 Frequencies --    583.4725               611.6664               619.2560
 Red. masses --      5.6369                 3.2456                 5.3033
 Frc consts  --      1.1307                 0.7155                 1.1982
 IR Inten    --     17.3952                17.6321                 3.0784
 Raman Activ --     64.3167                 2.1649                13.8949

                     28                     29                     30
                      A                      A                      A
 Frequencies --    643.5985               653.4007               690.2323
 Red. masses --      1.9664                 6.8280                 2.0872
 Frc consts  --      0.4799                 1.7175                 0.5859
 IR Inten    --     32.0276                17.7007                51.9990
 Raman Activ --      6.3104                32.2436                 6.8223

                     31                     32                     33
                      A                      A                      A
 Frequencies --    735.1691               738.6940               746.7990
 Red. masses --      5.1829                10.4460                 4.4209
 Frc consts  --      1.6504                 3.3584                 1.4527
 IR Inten    --     13.5361                25.2537                 0.2328
 Raman Activ --     81.5867                 0.1647                 1.5697

                     34                     35                     36
                      A                      A                      A
 Frequencies --    764.5752               794.3018               810.6184
 Red. masses --      5.2093                 9.6420                 6.2230
 Frc consts  --      1.7942                 3.5842                 2.4093
 IR Inten    --      0.2347                 3.3177                13.5869
 Raman Activ --     72.6739                 5.9189                 4.5453

                     37                     38                     39
                      A                      A                      A
 Frequencies --    832.6057               851.1348               879.1240
 Red. masses --      1.4455                 4.1410                 1.4082
 Frc consts  --      0.5904                 1.7675                 0.6412
 IR Inten    --     20.5484                24.8460                 5.5306
 Raman Activ --      0.5601                36.6364                 4.2609

                     40                     41                     42
                      A                      A                      A
 Frequencies --    964.7518               984.2077               990.2516
 Red. masses --      1.8605                 2.3573                 1.4957
 Frc consts  --      1.0203                 1.3454                 0.8641
 IR Inten    --     43.1947                12.1247                18.3533
 Raman Activ --     10.9110                 8.0779                 3.0041

                     43                     44                     45
                      A                      A                      A
 Frequencies --    993.6741               995.2592              1015.5442
 Red. masses --      2.0579                 2.1548                 1.6961
 Frc consts  --      1.1972                 1.2576                 1.0306
 IR Inten    --     21.6845                96.8793                 0.0693
 Raman Activ --     12.3048                 1.5338                 0.3065

                     46                     47                     48
                      A                      A                      A
 Frequencies --   1064.8669              1091.8196              1134.0831
 Red. masses --      2.3146                 1.3367                 3.1455
 Frc consts  --      1.5464                 0.9388                 2.3836
 IR Inten    --     25.0281                 0.0029                 0.4131
 Raman Activ --    107.8442                 0.1543                16.9308

                     49                     50                     51
                      A                      A                      A
 Frequencies --   1161.8221              1180.5469              1208.2708
 Red. masses --      2.3795                 3.2676                 3.2638
 Frc consts  --      1.8924                 2.6831                 2.8074
 IR Inten    --     33.3551               184.8925                70.7772
 Raman Activ --     10.0153                84.1359               653.0670

                     52                     53                     54
                      A                      A                      A
 Frequencies --   1225.7067              1284.5769              1304.1566
 Red. masses --      1.4637                 6.4056                 4.0190
 Frc consts  --      1.2956                 6.2277                 4.0275
 IR Inten    --     81.8133                37.5413               386.9330
 Raman Activ --     78.3283               223.0412               531.3605

                     55                     56                     57
                      A                      A                      A
 Frequencies --   1317.3948              1333.1048              1338.6798
 Red. masses --      2.8279                 1.3140                 1.7759
 Frc consts  --      2.8916                 1.3759                 1.8751
 IR Inten    --     27.0513                15.3182                 9.8165
 Raman Activ --    119.6660               339.6892               487.9055

                     58                     59                     60
                      A                      A                      A
 Frequencies --   1340.6902              1356.6390              1366.5060
 Red. masses --      1.4084                 3.3146                 2.4128
 Frc consts  --      1.4915                 3.5943                 2.6545
 IR Inten    --     15.9701               120.5635                36.5723
 Raman Activ --    694.6004               212.1865               450.9802

                     61                     62                     63
                      A                      A                      A
 Frequencies --   1381.8984              1385.5865              1391.9480
 Red. masses --      1.4092                 1.0415                 1.5463
 Frc consts  --      1.5856                 1.1781                 1.7652
 IR Inten    --      7.5766                 0.7774                97.5289
 Raman Activ --     30.2479                42.2738               282.6281

                     64                     65                     66
                      A                      A                      A
 Frequencies --   1400.1931              1404.6843              1417.5060
 Red. masses --      1.0388                 1.1537                 1.0368
 Frc consts  --      1.2000                 1.3412                 1.2274
 IR Inten    --     24.5018                72.8047                15.0063
 Raman Activ --     36.3457               204.1032                31.3187

                     67                     68                     69
                      A                      A                      A
 Frequencies --   1426.1321              1450.3572              1479.4878
 Red. masses --      1.9297                 4.8811                 4.2589
 Frc consts  --      2.3124                 6.0495                 5.4925
 IR Inten    --     71.2712               132.4908                 8.6449
 Raman Activ --    232.0836              1055.9805               530.7347

                     70                     71                     72
                      A                      A                      A
 Frequencies --   1509.3772              1530.2428              1561.0480
 Red. masses --      9.1371                 7.4437                 9.6466
 Frc consts  --     12.2646                10.2698                13.8502
 IR Inten    --    107.1932              1904.1630               790.1087
 Raman Activ --    290.1418              1596.2230               380.3421

                     73                     74                     75
                      A                      A                      A
 Frequencies --   1625.4593              1680.9838              1707.2911
 Red. masses --      7.6702                 8.7258                12.1651
 Frc consts  --     11.9401                14.5273                20.8920
 IR Inten    --     19.1312              1048.7016               448.4239
 Raman Activ --    374.2184               488.7056               717.5882

                     76                     77                     78
                      A                      A                      A
 Frequencies --   2957.3039              2958.4363              2985.9030
 Red. masses --      1.0386                 1.0392                 1.0345
 Frc consts  --      5.3516                 5.3589                 5.4341
 IR Inten    --     67.3975                 8.2357                28.0034
 Raman Activ --   2153.8333               589.1383               482.5108

                     79                     80                     81
                      A                      A                      A
 Frequencies --   3017.8991              3020.6560              3064.9711
 Red. masses --      1.0988                 1.0991                 1.1009
 Frc consts  --      5.8961                 5.9088                 6.0930
 IR Inten    --     23.9424                 0.0231                22.4114
 Raman Activ --    774.5104                 8.5968               197.1215

                     82                     83                     84
                      A                      A                      A
 Frequencies --   3068.7183              3070.4481              3117.6160
 Red. masses --      1.1012                 1.1059                 1.0914
 Frc consts  --      6.1100                 6.1427                 6.2498
 IR Inten    --     17.5969                 6.3842                13.1980
 Raman Activ --    332.0086               198.6609               273.6289

                     85                     86                     87
                      A                      A                      A
 Frequencies --   3123.0652              3142.2951              3466.2453
 Red. masses --      1.1024                 1.0908                 1.0777
 Frc consts  --      6.3352                 6.3456                 7.6292
 IR Inten    --      9.2158                 5.9433                85.3147
 Raman Activ --     68.8873               255.3367               737.4815

 - Thermochemistry -
 -------------------
 Temperature   298.150 Kelvin.  Pressure   1.00000 Atm.
 Atom     1 has atomic number  7 and mass  14.00307

 Molecular mass:   256.09603 amu.
 Principal axes and moments of inertia in atomic units:
                           1         2         3
     Eigenvalues --  2059.791377973.714439998.97641
           X            1.00000   0.00039  -0.00000
           Y           -0.00039   1.00000   0.00000
           Z            0.00000  -0.00000   1.00000
 This molecule is an asymmetric top.
 Rotational symmetry number  1.
 Warning -- assumption of classical behavior for rotation
           may cause significant error
 Rotational temperatures (Kelvin)      0.04205     0.01086     0.00866
 Rotational constants (GHZ):           0.87618     0.22634     0.18049
 Zero-point vibrational energy     608112.2 (Joules/Mol)
                                  145.34229 (Kcal/Mol)
 Warning -- explicit consideration of  27 degrees of freedom as
           vibrations may cause significant error
 Vibrational temperatures:     57.86    77.57   132.64   180.43   185.91
          (Kelvin)            212.50   229.82   236.93   262.86   280.23
                              350.02   388.99   416.24   453.95   464.99
                              495.46   530.41   561.28   615.17   630.68
                              696.60   721.11   721.45   758.95   839.49
                              880.05   890.97   925.99   940.10   993.09
                             1057.74  1062.82  1074.48  1100.05  1142.82
                             1166.30  1197.93  1224.59  1264.86  1388.06
                             1416.06  1424.75  1429.68  1431.96  1461.14
                             1532.11  1570.88  1631.69  1671.60  1698.54
                             1738.43  1763.52  1848.22  1876.39  1895.44
                             1918.04  1926.06  1928.95  1951.90  1966.10
                             1988.24  1993.55  2002.70  2014.57  2021.03
                             2039.48  2051.89  2086.74  2128.65  2171.66
                             2201.68  2246.00  2338.67  2418.56  2456.41
                             4254.90  4256.53  4296.05  4342.08  4346.05
                             4409.81  4415.20  4417.69  4485.55  4493.39
                             4521.06  4987.15

 Zero-point correction=                           0.231618 (Hartree/Particle)
 Thermal correction to Energy=                    0.248080
 Thermal correction to Enthalpy=                  0.249024
 Thermal correction to Gibbs Free Energy=         0.187997
 Sum of electronic and zero-point Energies=           -872.040882
 Sum of electronic and thermal Energies=              -872.024420
 Sum of electronic and thermal Enthalpies=            -872.023476
 Sum of electronic and thermal Free Energies=         -872.084503

                     E (Thermal)             CV                S
                      KCal/Mol        Cal/Mol-Kelvin    Cal/Mol-Kelvin
 Total                  155.672             64.031            128.443
 Electronic               0.000              0.000              0.000
 Translational            0.889              2.981             42.521
 Rotational               0.889              2.981             33.462
 Vibrational            153.895             58.069             52.459
 Vibration     1          0.594              1.981              5.249
 Vibration     2          0.596              1.976              4.668
 Vibration     3          0.602              1.955              3.613
 Vibration     4          0.610              1.928              3.015
 Vibration     5          0.612              1.924              2.958
 Vibration     6          0.617              1.905              2.702
 Vibration     7          0.622              1.892              2.553
 Vibration     8          0.623              1.886              2.495
 Vibration     9          0.630              1.863              2.301
 Vibration    10          0.635              1.847              2.182
 Vibration    11          0.659              1.774              1.779
 Vibration    12          0.674              1.728              1.594
 Vibration    13          0.686              1.694              1.478
 Vibration    14          0.703              1.644              1.333
 Vibration    15          0.708              1.629              1.294
 Vibration    16          0.723              1.587              1.192
 Vibration    17          0.741              1.537              1.085
 Vibration    18          0.758              1.491              1.000
 Vibration    19          0.789              1.410              0.867
 Vibration    20          0.799              1.387              0.832
 Vibration    21          0.840              1.285              0.699
 Vibration    22          0.857              1.247              0.655
 Vibration    23          0.857              1.247              0.655
 Vibration    24          0.882              1.189              0.593
 Vibration    25          0.940              1.067              0.479
 Vibration    26          0.971              1.007              0.430
 Vibration    27          0.979              0.991              0.418

                           ! Non-Optimized Parameters !

 1\1\GINC-ELMO3-1\Freq\RBP86\CC-pVDZ\C13H12N4O2\BERDARD\01-Aug-2022\0\\
 #P Geom=AllCheck Guess=TCheck SCRF=Check GenChk RBP86/CC-pVDZ Freq\\lu
 miflavin ground state optimiyation\\0,1\N,0.0816909094,0.7189985174,-0
 .4780882174\C,-0.2687295479,2.0556242412,-0.4986723532\O,-1.4395138252
 ,2.4438921795,-0.5888875921\N,0.764866535,3.0271550872,-0.4122560262\C
 ,2.1287676695,2.8019654459,-0.3060623694\O,2.9550370523,3.715822296,-0
 .2361427169\C,2.4720627999,1.3454495915,-0.2864212773\N,3.7457081687,1
 .014287834,-0.18763619\C,4.051974215,-0.3210984806,-0.1704311457\C,5.4

 Normal termination of Gaussian 16 at Mon Aug  1 13:23:43 2022.
